REMARK  Prepared by QuarkSuit (RDKit chemistry)
REMARK  5 active torsions
ROOT
ATOM      1  C6  UNL     1      10.923   1.086 -10.195  1.00  0.00     0.071 C 
ATOM      2  S1  UNL     1      10.884   2.103  -8.662  1.00  0.00    -0.154 SA
ATOM      3  C7  UNL     1      10.299   0.620  -7.760  1.00  0.00     0.097 C 
ATOM      4  C8  UNL     1      11.142  -0.543  -8.274  1.00  0.00     0.117 C 
ATOM      5  N1  UNL     1      12.443  -0.631  -7.613  1.00  0.00    -0.332 N 
ATOM      6  C9  UNL     1      13.467  -0.443  -8.453  1.00  0.00     0.315 C 
ATOM      7  O3  UNL     1      14.692  -0.446  -8.205  1.00  0.00    -0.249 OA
ATOM      8  N2  UNL     1      12.974  -0.237  -9.695  1.00  0.00    -0.332 N 
ATOM      9  C10 UNL     1      11.513  -0.265  -9.727  1.00  0.00     0.120 C 
ATOM     10  H1  UNL     1      12.559  -0.818  -6.607  1.00  0.00     0.165 HD
ATOM     11  H2  UNL     1      13.562  -0.078 -10.525  1.00  0.00     0.165 HD
ENDROOT
BRANCH   1  12
ATOM     12  C5  UNL     1      11.627   1.558 -11.402  1.00  0.00     0.017 C 
BRANCH  12  13
ATOM     13  C4  UNL     1      11.487   2.972 -11.964  1.00  0.00     0.002 C 
BRANCH  13  14
ATOM     14  C3  UNL     1      10.215   3.247 -12.658  1.00  0.00     0.006 C 
BRANCH  14  15
ATOM     15  C2  UNL     1      10.321   4.413 -13.702  1.00  0.00     0.053 C 
BRANCH  15  16
ATOM     16  C1  UNL     1       9.051   4.576 -14.459  1.00  0.00     0.041 C 
ATOM     17  O1  UNL     1       8.147   5.373 -14.172  1.00  0.00    -0.550 OA
ATOM     18  O2  UNL     1       8.697   3.498 -15.132  1.00  0.00    -0.550 OA
ENDBRANCH  15  16
ENDBRANCH  14  15
ENDBRANCH  13  14
ENDBRANCH  12  13
ENDBRANCH   1  12
TORSDOF 5
